/*--------------------------------*- C++ -*----------------------------------*\
  =========                 |
  \\      /  F ield         | OpenFOAM: The Open Source CFD Toolbox
   \\    /   O peration     | Website:  https://openfoam.org
    \\  /    A nd           | Version:  dev
     \\/     M anipulation  |

   OpenFOAM for Windows 20.09 (v1)
   Built by CFD Support, www.cfdsupport.com (based on Symscape).
\*---------------------------------------------------------------------------*/
FoamFile
{
    version     2.0;
    format      ascii;
    class       polyBoundaryMesh;
    location    "constant/polyMesh";
    object      boundary;
}
// * * * * * * * * * * * * * * * * * * * * * * * * * * * * * * * * * * * * * //

4
(
    airfoil
    {
        type            wall;
        inGroups        1(wall);
        nFaces          128;
        startFace       76288;
    }
    empty
    {
        type            empty;
        inGroups        1(empty);
        nFaces          38144;
        startFace       38144;
    }
    inlet
    {
        type            patch;
        nFaces          64;
        startFace       38016;
    }
    outlet
    {
        type            patch;
        nFaces          64;
        startFace       38080;
    }
)

// ************************************************************************* //
